
333	atoms
203	bonds
100	angles
0	dihedrals

5	atom types
2	bond types
1	angle types
0	dihedral types

-117.747139123 117.747139123 xlo xhi
-117.747139123 117.747139123 ylo yhi
-117.747139123 117.747139123 zlo zhi

Masses

1	15.999
2	1.008
3	14.0
4	22.99
5	35.453

Atoms

1	1	4	1.0	0.0	0.0	0.0 0 0 0
2	2	5	-1.0	0.0	0.0	2.815 0 0 0
3	3	4	1.0	0.0	0.0	5.63 0 0 0
4	4	5	-1.0	0.0	2.815	0.0 0 0 0
5	5	4	1.0	0.0	2.815	2.815 0 0 0
6	6	5	-1.0	0.0	2.815	5.63 0 0 0
7	7	4	1.0	0.0	5.63	0.0 0 0 0
8	8	5	-1.0	0.0	5.63	2.815 0 0 0
9	9	4	1.0	0.0	5.63	5.63 0 0 0
10	10	5	-1.0	2.815	0.0	0.0 0 0 0
11	11	4	1.0	2.815	0.0	2.815 0 0 0
12	12	5	-1.0	2.815	0.0	5.63 0 0 0
13	13	4	1.0	2.815	2.815	0.0 0 0 0
14	14	5	-1.0	2.815	2.815	2.815 0 0 0
15	15	4	1.0	2.815	2.815	5.63 0 0 0
16	16	5	-1.0	2.815	5.63	0.0 0 0 0
17	17	4	1.0	2.815	5.63	2.815 0 0 0
18	18	5	-1.0	2.815	5.63	5.63 0 0 0
19	19	4	1.0	5.63	0.0	0.0 0 0 0
20	20	5	-1.0	5.63	0.0	2.815 0 0 0
21	21	4	1.0	5.63	0.0	5.63 0 0 0
22	22	5	-1.0	5.63	2.815	0.0 0 0 0
23	23	4	1.0	5.63	2.815	2.815 0 0 0
24	24	5	-1.0	5.63	2.815	5.63 0 0 0
25	25	4	1.0	5.63	5.63	0.0 0 0 0
26	26	5	-1.0	5.63	5.63	2.815 0 0 0
27	27	4	1.0	5.63	5.63	5.63 0 0 0
28	28	1	-0.83	-35.373053882394274	-79.095630711957	-7.75049436694203 0 0 0
29	28	2	0.415	-34.616053882394276	-78.509730711957	-7.75049436694203 0 0 0
30	28	2	0.415	-36.13005388239427	-78.509730711957	-7.75049436694203 0 0 0
31	29	1	-0.83	42.11821752911472	62.786266845708184	-54.71145262242545 0 0 0
32	29	2	0.415	42.87521752911472	63.372166845708186	-54.71145262242545 0 0 0
33	29	2	0.415	41.361217529114725	63.372166845708186	-54.71145262242545 0 0 0
34	30	1	-0.83	1.4950139388462849	-106.33801864081863	-84.79305275644445 0 0 0
35	30	2	0.415	2.252013938846285	-105.75211864081864	-84.79305275644445 0 0 0
36	30	2	0.415	0.7380139388462849	-105.75211864081864	-84.79305275644445 0 0 0
37	31	1	-0.83	-104.98098639909375	36.57766531567366	-12.654045680145652 0 0 0
38	31	2	0.415	-104.22398639909375	37.163565315673665	-12.654045680145652 0 0 0
39	31	2	0.415	-105.73798639909376	37.163565315673665	-12.654045680145652 0 0 0
40	32	1	-0.83	-63.798725366968235	-86.46438861817478	-36.714393501654484 0 0 0
41	32	2	0.415	-63.04172536696824	-85.87848861817479	-36.714393501654484 0 0 0
42	32	2	0.415	-64.55572536696823	-85.87848861817479	-36.714393501654484 0 0 0
43	33	1	-0.83	57.51442600518262	95.67157560462793	-3.260782854871518 0 0 0
44	33	2	0.415	58.27142600518262	96.25747560462793	-3.260782854871518 0 0 0
45	33	2	0.415	56.75742600518262	96.25747560462793	-3.260782854871518 0 0 0
46	34	1	-0.83	83.89545832368184	53.492412590952384	113.2497675418571 0 0 0
47	34	2	0.415	84.65245832368184	54.078312590952386	113.2497675418571 0 0 0
48	34	2	0.415	83.13845832368183	54.078312590952386	113.2497675418571 0 0 0
49	35	1	-0.83	82.75994015026309	-7.585236483574624	-33.92856660956501 0 0 0
50	35	2	0.415	83.5169401502631	-6.999336483574624	-33.92856660956501 0 0 0
51	35	2	0.415	82.00294015026309	-6.999336483574624	-33.92856660956501 0 0 0
52	36	1	-0.83	110.08303283242924	31.38033845730166	-85.78016397882928 0 0 0
53	36	2	0.415	110.84003283242924	31.96623845730166	-85.78016397882928 0 0 0
54	36	2	0.415	109.32603283242923	31.96623845730166	-85.78016397882928 0 0 0
55	37	1	-0.83	86.90221842005288	55.49002319477168	81.20114499081961 0 0 0
56	37	2	0.415	87.65921842005288	56.07592319477168	81.20114499081961 0 0 0
57	37	2	0.415	86.14521842005287	56.07592319477168	81.20114499081961 0 0 0
58	38	1	-0.83	21.212338335242634	-19.228573597677094	-99.41545391401314 0 0 0
59	38	2	0.415	21.969338335242636	-18.642673597677096	-99.41545391401314 0 0 0
60	38	2	0.415	20.455338335242633	-18.642673597677096	-99.41545391401314 0 0 0
61	39	1	-0.83	-63.62253186335035	-108.13815077389272	46.12848437077755 0 0 0
62	39	2	0.415	-62.865531863350355	-107.55225077389272	46.12848437077755 0 0 0
63	39	2	0.415	-64.37953186335035	-107.55225077389272	46.12848437077755 0 0 0
64	40	1	-0.83	15.333678063292545	5.147038109903201	-48.03276330574659 0 0 0
65	40	2	0.415	16.090678063292547	5.732938109903201	-48.03276330574659 0 0 0
66	40	2	0.415	14.576678063292546	5.732938109903201	-48.03276330574659 0 0 0
67	41	1	-0.83	-102.11001601171013	-37.014929507505926	-46.70814429552242 0 0 0
68	41	2	0.415	-101.35301601171012	-36.42902950750592	-46.70814429552242 0 0 0
69	41	2	0.415	-102.86701601171013	-36.42902950750592	-46.70814429552242 0 0 0
70	42	1	-0.83	73.92515456501427	-16.13734732286481	20.701067407533415 0 0 0
71	42	2	0.415	74.68215456501427	-15.551447322864808	20.701067407533415 0 0 0
72	42	2	0.415	73.16815456501426	-15.551447322864808	20.701067407533415 0 0 0
73	43	1	-0.83	66.5472735276904	30.61189646416849	40.01564820445989 0 0 0
74	43	2	0.415	67.3042735276904	31.197796464168487	40.01564820445989 0 0 0
75	43	2	0.415	65.79027352769039	31.197796464168487	40.01564820445989 0 0 0
76	44	1	-0.83	94.55055515266776	112.46137013877205	-108.17864076644854 0 0 0
77	44	2	0.415	95.30755515266776	113.04727013877205	-108.17864076644854 0 0 0
78	44	2	0.415	93.79355515266775	113.04727013877205	-108.17864076644854 0 0 0
79	45	1	-0.83	-108.6136494741154	6.8169716524915005	-84.52829897645253 0 0 0
80	45	2	0.415	-107.8566494741154	7.4028716524915	-84.52829897645253 0 0 0
81	45	2	0.415	-109.37064947411541	7.4028716524915	-84.52829897645253 0 0 0
82	46	1	-0.83	-92.83766072803549	28.490891222900473	106.370210372744 0 0 0
83	46	2	0.415	-92.08066072803548	29.07679122290047	106.370210372744 0 0 0
84	46	2	0.415	-93.59466072803549	29.07679122290047	106.370210372744 0 0 0
85	47	1	-0.83	-67.99657983744781	-87.43629414375452	-6.96811536669091 0 0 0
86	47	2	0.415	-67.2395798374478	-86.85039414375453	-6.96811536669091 0 0 0
87	47	2	0.415	-68.75357983744782	-86.85039414375453	-6.96811536669091 0 0 0
88	48	1	-0.83	28.084394881087515	-24.231146920820912	-39.89987054801839 0 0 0
89	48	2	0.415	28.841394881087517	-23.645246920820913	-39.89987054801839 0 0 0
90	48	2	0.415	27.327394881087514	-23.645246920820913	-39.89987054801839 0 0 0
91	49	1	-0.83	75.44924123116165	71.1089160394906	59.2208835089332 0 0 0
92	49	2	0.415	76.20624123116166	71.69481603949059	59.2208835089332 0 0 0
93	49	2	0.415	74.69224123116165	71.69481603949059	59.2208835089332 0 0 0
94	50	1	-0.83	-49.48402353479562	15.3725107310115	-37.33282309419787 0 0 0
95	50	2	0.415	-48.72702353479562	15.9584107310115	-37.33282309419787 0 0 0
96	50	2	0.415	-50.241023534795616	15.9584107310115	-37.33282309419787 0 0 0
97	51	1	-0.83	-44.10469456270011	-60.695815662675145	-50.794802803977056 0 0 0
98	51	2	0.415	-43.34769456270011	-60.10991566267514	-50.794802803977056 0 0 0
99	51	2	0.415	-44.86169456270011	-60.10991566267514	-50.794802803977056 0 0 0
100	52	1	-0.83	-45.48023610604497	-76.34432580661132	15.382046216554786 0 0 0
101	52	2	0.415	-44.72323610604497	-75.75842580661133	15.382046216554786 0 0 0
102	52	2	0.415	-46.23723610604497	-75.75842580661133	15.382046216554786 0 0 0
103	53	1	-0.83	56.42617790791947	-113.02734256011864	47.14499357613145 0 0 0
104	53	2	0.415	57.183177907919465	-112.44144256011865	47.14499357613145 0 0 0
105	53	2	0.415	55.66917790791947	-112.44144256011865	47.14499357613145 0 0 0
106	54	1	-0.83	77.4038152125675	63.111783887384604	37.13456468387084 0 0 0
107	54	2	0.415	78.1608152125675	63.697683887384606	37.13456468387084 0 0 0
108	54	2	0.415	76.64681521256749	63.697683887384606	37.13456468387084 0 0 0
109	55	1	-0.83	-84.9029373656814	-114.05163955862749	-26.67892810025995 0 0 0
110	55	2	0.415	-84.14593736568139	-113.46573955862749	-26.67892810025995 0 0 0
111	55	2	0.415	-85.6599373656814	-113.46573955862749	-26.67892810025995 0 0 0
112	56	1	-0.83	24.371721120452975	-104.91250598009388	-100.51852321118407 0 0 0
113	56	2	0.415	25.128721120452976	-104.32660598009389	-100.51852321118407 0 0 0
114	56	2	0.415	23.614721120452973	-104.32660598009389	-100.51852321118407 0 0 0
115	57	1	-0.83	-47.67807522370492	-58.74747399819836	5.658113729775092 0 0 0
116	57	2	0.415	-46.921075223704925	-58.16157399819836	5.658113729775092 0 0 0
117	57	2	0.415	-48.43507522370492	-58.16157399819836	5.658113729775092 0 0 0
118	58	1	-0.83	-108.91142726564044	21.268754293489305	76.48559741962522 0 0 0
119	58	2	0.415	-108.15442726564044	21.854654293489304	76.48559741962522 0 0 0
120	58	2	0.415	-109.66842726564045	21.854654293489304	76.48559741962522 0 0 0
121	59	1	-0.83	61.102785789503756	-18.598265307518048	56.06108119502128 0 0 0
122	59	2	0.415	61.85978578950375	-18.01236530751805	56.06108119502128 0 0 0
123	59	2	0.415	60.34578578950376	-18.01236530751805	56.06108119502128 0 0 0
124	60	1	-0.83	-25.5685808601189	23.837182915292498	-22.830756555715855 0 0 0
125	60	2	0.415	-24.811580860118898	24.423082915292497	-22.830756555715855 0 0 0
126	60	2	0.415	-26.3255808601189	24.423082915292497	-22.830756555715855 0 0 0
127	61	1	-0.83	78.75728499342316	7.314528834041997	-39.291120028869344 0 0 0
128	61	2	0.415	79.51428499342316	7.900428834041997	-39.291120028869344 0 0 0
129	61	2	0.415	78.00028499342315	7.900428834041997	-39.291120028869344 0 0 0
130	62	1	-0.83	4.396142781833401	-32.41140620006805	63.84371849670598 0 0 0
131	62	2	0.415	5.153142781833401	-31.82550620006805	63.84371849670598 0 0 0
132	62	2	0.415	3.639142781833401	-31.82550620006805	63.84371849670598 0 0 0
133	63	1	-0.83	0.23283003086494247	-42.74302145750997	57.01348055351177 0 0 0
134	63	2	0.415	0.9898300308649425	-42.157121457509966	57.01348055351177 0 0 0
135	63	2	0.415	-0.5241699691350575	-42.157121457509966	57.01348055351177 0 0 0
136	64	1	-0.83	71.48128233329551	-22.33039358814914	34.958890761951395 0 0 0
137	64	2	0.415	72.23828233329552	-21.74449358814914	34.958890761951395 0 0 0
138	64	2	0.415	70.7242823332955	-21.74449358814914	34.958890761951395 0 0 0
139	65	1	-0.83	-45.32676994007581	10.129949853518115	-105.50433410386364 0 0 0
140	65	2	0.415	-44.569769940075815	10.715849853518115	-105.50433410386364 0 0 0
141	65	2	0.415	-46.08376994007581	10.715849853518115	-105.50433410386364 0 0 0
142	66	1	-0.83	33.13852265525198	65.10474675390354	-27.19783054617347 0 0 0
143	66	2	0.415	33.89552265525198	65.69064675390354	-27.19783054617347 0 0 0
144	66	2	0.415	32.381522655251985	65.69064675390354	-27.19783054617347 0 0 0
145	67	1	-0.83	72.95461261144384	-43.80827476936888	-110.6652852699551 0 0 0
146	67	2	0.415	73.71161261144384	-43.22237476936888	-110.6652852699551 0 0 0
147	67	2	0.415	72.19761261144383	-43.22237476936888	-110.6652852699551 0 0 0
148	68	1	-0.83	1.757008760713027	25.646481343994346	-67.42361069932183 0 0 0
149	68	2	0.415	2.514008760713027	26.232381343994344	-67.42361069932183 0 0 0
150	68	2	0.415	1.000008760713027	26.232381343994344	-67.42361069932183 0 0 0
151	69	1	-0.83	-51.53312691706174	-42.465640294979764	-18.972771355651044 0 0 0
152	69	2	0.415	-50.776126917061745	-41.87974029497976	-18.972771355651044 0 0 0
153	69	2	0.415	-52.29012691706174	-41.87974029497976	-18.972771355651044 0 0 0
154	70	1	-0.83	-16.49752609306924	27.567930384912035	-95.87300347903295 0 0 0
155	70	2	0.415	-15.74052609306924	28.153830384912034	-95.87300347903295 0 0 0
156	70	2	0.415	-17.25452609306924	28.153830384912034	-95.87300347903295 0 0 0
157	71	1	-0.83	65.18137943744256	77.27967200299015	-14.453240071605169 0 0 0
158	71	2	0.415	65.93837943744256	77.86557200299015	-14.453240071605169 0 0 0
159	71	2	0.415	64.42437943744255	77.86557200299015	-14.453240071605169 0 0 0
160	72	1	-0.83	-67.50674877449337	-69.04938952212393	42.607101170881066 0 0 0
161	72	2	0.415	-66.74974877449337	-68.46348952212394	42.607101170881066 0 0 0
162	72	2	0.415	-68.26374877449338	-68.46348952212394	42.607101170881066 0 0 0
163	73	1	-0.83	-47.47957803285528	57.28137684286739	-115.04942778828307 0 0 0
164	73	2	0.415	-46.72257803285528	57.86727684286739	-115.04942778828307 0 0 0
165	73	2	0.415	-48.23657803285528	57.86727684286739	-115.04942778828307 0 0 0
166	74	1	-0.83	-44.54288115850013	-31.251278067445703	-103.67542430733468 0 0 0
167	74	2	0.415	-43.78588115850013	-30.665378067445705	-103.67542430733468 0 0 0
168	74	2	0.415	-45.29988115850013	-30.665378067445705	-103.67542430733468 0 0 0
169	75	1	-0.83	-75.70865554600447	104.02885349443567	30.901871378176637 0 0 0
170	75	2	0.415	-74.95165554600446	104.61475349443566	30.901871378176637 0 0 0
171	75	2	0.415	-76.46565554600447	104.61475349443566	30.901871378176637 0 0 0
172	76	1	-0.83	-102.92462944899725	-83.66607100216213	57.94729649569147 0 0 0
173	76	2	0.415	-102.16762944899725	-83.08017100216213	57.94729649569147 0 0 0
174	76	2	0.415	-103.68162944899726	-83.08017100216213	57.94729649569147 0 0 0
175	77	1	-0.83	23.103637998321243	-58.45713187288126	-65.74702440744169 0 0 0
176	77	2	0.415	23.860637998321245	-57.87123187288126	-65.74702440744169 0 0 0
177	77	2	0.415	22.346637998321242	-57.87123187288126	-65.74702440744169 0 0 0
178	78	1	-0.83	-43.73362979617805	-100.14666138871966	-54.245479341854185 0 0 0
179	78	2	0.415	-42.97662979617805	-99.56076138871967	-54.245479341854185 0 0 0
180	78	2	0.415	-44.49062979617805	-99.56076138871967	-54.245479341854185 0 0 0
181	79	1	-0.83	-87.81752365034218	27.304178354317184	110.56399486106726 0 0 0
182	79	2	0.415	-87.06052365034218	27.890078354317183	110.56399486106726 0 0 0
183	79	2	0.415	-88.57452365034219	27.890078354317183	110.56399486106726 0 0 0
184	80	1	-0.83	-54.80424148485308	-83.73654848892961	39.78755109997735 0 0 0
185	80	2	0.415	-54.04724148485308	-83.15064848892962	39.78755109997735 0 0 0
186	80	2	0.415	-55.56124148485308	-83.15064848892962	39.78755109997735 0 0 0
187	81	1	-0.83	-13.101399764886962	-74.28135895561554	104.68459348335031 0 0 0
188	81	2	0.415	-12.344399764886962	-73.69545895561555	104.68459348335031 0 0 0
189	81	2	0.415	-13.858399764886961	-73.69545895561555	104.68459348335031 0 0 0
190	82	1	-0.83	93.17905132697432	9.73992288299188	-38.12562183014113 0 0 0
191	82	2	0.415	93.93605132697432	10.325822882991881	-38.12562183014113 0 0 0
192	82	2	0.415	92.42205132697431	10.325822882991881	-38.12562183014113 0 0 0
193	83	1	-0.83	-13.61484383910224	-89.224870056491	104.97590677585934 0 0 0
194	83	2	0.415	-12.857843839102241	-88.638970056491	104.97590677585934 0 0 0
195	83	2	0.415	-14.37184383910224	-88.638970056491	104.97590677585934 0 0 0
196	84	1	-0.83	110.00309216554115	-97.12275354836565	8.879030083759117 0 0 0
197	84	2	0.415	110.76009216554115	-96.53685354836566	8.879030083759117 0 0 0
198	84	2	0.415	109.24609216554114	-96.53685354836566	8.879030083759117 0 0 0
199	85	1	-0.83	105.56777534044545	96.92775891215429	110.12278257241216 0 0 0
200	85	2	0.415	106.32477534044546	97.51365891215428	110.12278257241216 0 0 0
201	85	2	0.415	104.81077534044545	97.51365891215428	110.12278257241216 0 0 0
202	86	1	-0.83	-53.226594337875895	77.83432453650903	-102.6098850866499 0 0 0
203	86	2	0.415	-52.4695943378759	78.42022453650902	-102.6098850866499 0 0 0
204	86	2	0.415	-53.98359433787589	78.42022453650902	-102.6098850866499 0 0 0
205	87	1	-0.83	-2.7300981602090193	87.76052009699269	-114.43815091730593 0 0 0
206	87	2	0.415	-1.9730981602090192	88.34642009699269	-114.43815091730593 0 0 0
207	87	2	0.415	-3.4870981602090194	88.34642009699269	-114.43815091730593 0 0 0
208	88	1	-0.83	-79.06046541268378	20.762572462638584	-79.01818042866935 0 0 0
209	88	2	0.415	-78.30346541268378	21.348472462638583	-79.01818042866935 0 0 0
210	88	2	0.415	-79.81746541268379	21.348472462638583	-79.01818042866935 0 0 0
211	89	1	-0.83	78.72153392306178	29.24589991421298	-66.20151125666368 0 0 0
212	89	2	0.415	79.47853392306179	29.83179991421298	-66.20151125666368 0 0 0
213	89	2	0.415	77.96453392306178	29.83179991421298	-66.20151125666368 0 0 0
214	90	1	-0.83	-103.84722804332505	-63.64199552399267	16.319271673448476 0 0 0
215	90	2	0.415	-103.09022804332504	-63.05609552399267	16.319271673448476 0 0 0
216	90	2	0.415	-104.60422804332505	-63.05609552399267	16.319271673448476 0 0 0
217	91	1	-0.83	92.67544712228106	-67.78845161911677	24.33685973877995 0 0 0
218	91	2	0.415	93.43244712228106	-67.20255161911678	24.33685973877995 0 0 0
219	91	2	0.415	91.91844712228105	-67.20255161911678	24.33685973877995 0 0 0
220	92	1	-0.83	103.45953107096022	52.47782829884474	23.079648430378153 0 0 0
221	92	2	0.415	104.21653107096023	53.063728298844744	23.079648430378153 0 0 0
222	92	2	0.415	102.70253107096022	53.063728298844744	23.079648430378153 0 0 0
223	93	1	-0.83	-76.80314422842741	-7.198076483184261	22.355698463652942 0 0 0
224	93	2	0.415	-76.04614422842741	-6.612176483184261	22.355698463652942 0 0 0
225	93	2	0.415	-77.56014422842742	-6.612176483184261	22.355698463652942 0 0 0
226	94	1	-0.83	-5.761859896309116	-47.948826966665656	-115.18326047094126 0 0 0
227	94	2	0.415	-5.004859896309116	-47.362926966665654	-115.18326047094126 0 0 0
228	94	2	0.415	-6.518859896309116	-47.362926966665654	-115.18326047094126 0 0 0
229	95	1	-0.83	-75.77463380772588	89.25834473444607	-111.33388945466801 0 0 0
230	95	2	0.415	-75.01763380772587	89.84424473444606	-111.33388945466801 0 0 0
231	95	2	0.415	-76.53163380772588	89.84424473444606	-111.33388945466801 0 0 0
232	96	1	-0.83	27.75205348823342	-35.215825728120215	111.28550750157565 0 0 0
233	96	2	0.415	28.509053488233423	-34.62992572812021	111.28550750157565 0 0 0
234	96	2	0.415	26.99505348823342	-34.62992572812021	111.28550750157565 0 0 0
235	97	1	-0.83	-41.75520392657138	-88.21149914984765	85.11320041464394 0 0 0
236	97	2	0.415	-40.998203926571385	-87.62559914984766	85.11320041464394 0 0 0
237	97	2	0.415	-42.51220392657138	-87.62559914984766	85.11320041464394 0 0 0
238	98	1	-0.83	100.73027493096592	76.25601886707989	80.45886395050744 0 0 0
239	98	2	0.415	101.48727493096592	76.84191886707988	80.45886395050744 0 0 0
240	98	2	0.415	99.97327493096591	76.84191886707988	80.45886395050744 0 0 0
241	99	1	-0.83	-65.99840382812204	0.7216429917744499	36.21232723406969 0 0 0
242	99	2	0.415	-65.24140382812203	1.3075429917744499	36.21232723406969 0 0 0
243	99	2	0.415	-66.75540382812204	1.3075429917744499	36.21232723406969 0 0 0
244	100	1	-0.83	7.687462773161139	14.75633802609075	-62.662222765325346 0 0 0
245	100	2	0.415	8.444462773161138	15.342238026090751	-62.662222765325346 0 0 0
246	100	2	0.415	6.930462773161139	15.342238026090751	-62.662222765325346 0 0 0
247	101	1	-0.83	112.98953982971777	-80.1072010657392	-39.71061415376372 0 0 0
248	101	2	0.415	113.74653982971778	-79.52130106573921	-39.71061415376372 0 0 0
249	101	2	0.415	112.23253982971777	-79.52130106573921	-39.71061415376372 0 0 0
250	102	1	-0.83	-26.641287861762233	-49.01472466913011	49.30367899241075 0 0 0
251	102	2	0.415	-25.884287861762232	-48.42882466913011	49.30367899241075 0 0 0
252	102	2	0.415	-27.398287861762235	-48.42882466913011	49.30367899241075 0 0 0
253	103	1	-0.83	-18.203917654271855	-39.97317764550445	-112.06762287861238 0 0 0
254	103	2	0.415	-17.446917654271854	-39.38727764550445	-112.06762287861238 0 0 0
255	103	2	0.415	-18.960917654271856	-39.38727764550445	-112.06762287861238 0 0 0
256	104	1	-0.83	-74.15687567223257	11.734048990830141	-39.974800484333294 0 0 0
257	104	2	0.415	-73.39987567223257	12.319948990830142	-39.974800484333294 0 0 0
258	104	2	0.415	-74.91387567223258	12.319948990830142	-39.974800484333294 0 0 0
259	105	1	-0.83	71.48012426675815	-106.43503735950101	-23.530501119141874 0 0 0
260	105	2	0.415	72.23712426675816	-105.84913735950101	-23.530501119141874 0 0 0
261	105	2	0.415	70.72312426675815	-105.84913735950101	-23.530501119141874 0 0 0
262	106	1	-0.83	67.39673623865477	70.88702813014977	-67.09566290627245 0 0 0
263	106	2	0.415	68.15373623865477	71.47292813014977	-67.09566290627245 0 0 0
264	106	2	0.415	66.63973623865476	71.47292813014977	-67.09566290627245 0 0 0
265	107	1	-0.83	72.42288422194054	-61.18702862927558	-106.31432363336586 0 0 0
266	107	2	0.415	73.17988422194054	-60.60112862927558	-106.31432363336586 0 0 0
267	107	2	0.415	71.66588422194053	-60.60112862927558	-106.31432363336586 0 0 0
268	108	1	-0.83	21.56382404190703	22.462426751762607	-24.925330466687786 0 0 0
269	108	2	0.415	22.32082404190703	23.048326751762605	-24.925330466687786 0 0 0
270	108	2	0.415	20.806824041907028	23.048326751762605	-24.925330466687786 0 0 0
271	109	1	-0.83	-90.7917701253726	46.10947649742955	-19.631192504566002 0 0 0
272	109	2	0.415	-90.03477012537259	46.69537649742955	-19.631192504566002 0 0 0
273	109	2	0.415	-91.5487701253726	46.69537649742955	-19.631192504566002 0 0 0
274	110	1	-0.83	109.90192131523003	28.915909110306444	-56.17183963067656 0 0 0
275	110	2	0.415	110.65892131523003	29.501809110306443	-56.17183963067656 0 0 0
276	110	2	0.415	109.14492131523002	29.501809110306443	-56.17183963067656 0 0 0
277	111	1	-0.83	-25.125204500104847	-29.50709979443817	-103.46805468191116 0 0 0
278	111	2	0.415	-24.368204500104845	-28.92119979443817	-103.46805468191116 0 0 0
279	111	2	0.415	-25.882204500104848	-28.92119979443817	-103.46805468191116 0 0 0
280	112	1	-0.83	-48.224449770668976	10.144607358604018	38.524572174929 0 0 0
281	112	2	0.415	-47.46744977066898	10.730507358604019	38.524572174929 0 0 0
282	112	2	0.415	-48.98144977066897	10.730507358604019	38.524572174929 0 0 0
283	113	1	-0.83	-23.29747095657959	59.656834769055045	16.47308149440736 0 0 0
284	113	2	0.415	-22.54047095657959	60.24273476905505	16.47308149440736 0 0 0
285	113	2	0.415	-24.054470956579593	60.24273476905505	16.47308149440736 0 0 0
286	114	1	-0.83	-112.27292456938198	38.212025866613075	-58.46943840673777 0 0 0
287	114	2	0.415	-111.51592456938198	38.79792586661308	-58.46943840673777 0 0 0
288	114	2	0.415	-113.02992456938199	38.79792586661308	-58.46943840673777 0 0 0
289	115	1	-0.83	-62.989164899069166	42.85635978578346	80.73918180158249 0 0 0
290	115	2	0.415	-62.23216489906917	43.44225978578346	80.73918180158249 0 0 0
291	115	2	0.415	-63.746164899069164	43.44225978578346	80.73918180158249 0 0 0
292	116	1	-0.83	49.663871345987914	83.36003505459618	84.43435282753222 0 0 0
293	116	2	0.415	50.42087134598791	83.94593505459618	84.43435282753222 0 0 0
294	116	2	0.415	48.906871345987916	83.94593505459618	84.43435282753222 0 0 0
295	117	1	-0.83	61.47961820689669	80.028575085773	-84.5778392179126 0 0 0
296	117	2	0.415	62.236618206896686	80.614475085773	-84.5778392179126 0 0 0
297	117	2	0.415	60.72261820689669	80.614475085773	-84.5778392179126 0 0 0
298	118	1	-0.83	85.07246137484665	-40.120347779066805	-8.199072768006017 0 0 0
299	118	2	0.415	85.82946137484666	-39.5344477790668	-8.199072768006017 0 0 0
300	118	2	0.415	84.31546137484665	-39.5344477790668	-8.199072768006017 0 0 0
301	119	1	-0.83	-94.50498494719852	-93.01842193017548	55.07932207270089 0 0 0
302	119	2	0.415	-93.74798494719852	-92.43252193017548	55.07932207270089 0 0 0
303	119	2	0.415	-95.26198494719853	-92.43252193017548	55.07932207270089 0 0 0
304	120	1	-0.83	-52.34705613011281	99.23307454100582	-67.80437979403905 0 0 0
305	120	2	0.415	-51.59005613011281	99.81897454100582	-67.80437979403905 0 0 0
306	120	2	0.415	-53.10405613011281	99.81897454100582	-67.80437979403905 0 0 0
307	121	1	-0.83	-104.03528234324381	-52.85705584547277	14.004114034127154 0 0 0
308	121	2	0.415	-103.2782823432438	-52.27115584547277	14.004114034127154 0 0 0
309	121	2	0.415	-104.79228234324381	-52.27115584547277	14.004114034127154 0 0 0
310	122	1	-0.83	-15.702867009420071	-45.772450101247095	11.71244487584576 0 0 0
311	122	2	0.415	-14.945867009420072	-45.18655010124709	11.71244487584576 0 0 0
312	122	2	0.415	-16.459867009420073	-45.18655010124709	11.71244487584576 0 0 0
313	123	1	-0.83	-51.09640453316272	12.990578897521479	-61.363610139807435 0 0 0
314	123	2	0.415	-50.33940453316272	13.57647889752148	-61.363610139807435 0 0 0
315	123	2	0.415	-51.85340453316272	13.57647889752148	-61.363610139807435 0 0 0
316	124	1	-0.83	5.865155612781701	10.474298756998612	-85.02727437560702 0 0 0
317	124	2	0.415	6.6221556127817	11.060198756998613	-85.02727437560702 0 0 0
318	124	2	0.415	5.108155612781701	11.060198756998613	-85.02727437560702 0 0 0
319	125	1	-0.83	46.56453885393937	53.540655584562955	62.24731870421929 0 0 0
320	125	2	0.415	47.321538853939366	54.12655558456296	62.24731870421929 0 0 0
321	125	2	0.415	45.80753885393937	54.12655558456296	62.24731870421929 0 0 0
322	126	1	-0.83	-37.79745236346925	-39.109607043517975	-62.465649001142445 0 0 0
323	126	2	0.415	-37.04045236346925	-38.52370704351797	-62.465649001142445 0 0 0
324	126	2	0.415	-38.554452363469245	-38.52370704351797	-62.465649001142445 0 0 0
325	127	1	-0.83	-43.58957230000522	78.83019601728606	-104.94535788601637 0 0 0
326	127	2	0.415	-42.832572300005225	79.41609601728605	-104.94535788601637 0 0 0
327	127	2	0.415	-44.34657230000522	79.41609601728605	-104.94535788601637 0 0 0
328	128	3	0.0	-75.69151922011783	92.66365712440974	-76.59837612527492 0 0 0
329	128	3	0.0	-74.59351922011781	92.66365712440974	-76.59837612527492 0 0 0
330	129	3	0.0	-23.220175085348867	37.19796675088299	67.69460898918449 0 0 0
331	129	3	0.0	-22.122175085348868	37.19796675088299	67.69460898918449 0 0 0
332	130	3	0.0	-102.18052207979409	55.87195445249698	91.07108057159054 0 0 0
333	130	3	0.0	-101.08252207979407	55.87195445249698	91.07108057159054 0 0 0

Bonds

1 1 28 29
2 1 28 30
3 1 31 32
4 1 31 33
5 1 34 35
6 1 34 36
7 1 37 38
8 1 37 39
9 1 40 41
10 1 40 42
11 1 43 44
12 1 43 45
13 1 46 47
14 1 46 48
15 1 49 50
16 1 49 51
17 1 52 53
18 1 52 54
19 1 55 56
20 1 55 57
21 1 58 59
22 1 58 60
23 1 61 62
24 1 61 63
25 1 64 65
26 1 64 66
27 1 67 68
28 1 67 69
29 1 70 71
30 1 70 72
31 1 73 74
32 1 73 75
33 1 76 77
34 1 76 78
35 1 79 80
36 1 79 81
37 1 82 83
38 1 82 84
39 1 85 86
40 1 85 87
41 1 88 89
42 1 88 90
43 1 91 92
44 1 91 93
45 1 94 95
46 1 94 96
47 1 97 98
48 1 97 99
49 1 100 101
50 1 100 102
51 1 103 104
52 1 103 105
53 1 106 107
54 1 106 108
55 1 109 110
56 1 109 111
57 1 112 113
58 1 112 114
59 1 115 116
60 1 115 117
61 1 118 119
62 1 118 120
63 1 121 122
64 1 121 123
65 1 124 125
66 1 124 126
67 1 127 128
68 1 127 129
69 1 130 131
70 1 130 132
71 1 133 134
72 1 133 135
73 1 136 137
74 1 136 138
75 1 139 140
76 1 139 141
77 1 142 143
78 1 142 144
79 1 145 146
80 1 145 147
81 1 148 149
82 1 148 150
83 1 151 152
84 1 151 153
85 1 154 155
86 1 154 156
87 1 157 158
88 1 157 159
89 1 160 161
90 1 160 162
91 1 163 164
92 1 163 165
93 1 166 167
94 1 166 168
95 1 169 170
96 1 169 171
97 1 172 173
98 1 172 174
99 1 175 176
100 1 175 177
101 1 178 179
102 1 178 180
103 1 181 182
104 1 181 183
105 1 184 185
106 1 184 186
107 1 187 188
108 1 187 189
109 1 190 191
110 1 190 192
111 1 193 194
112 1 193 195
113 1 196 197
114 1 196 198
115 1 199 200
116 1 199 201
117 1 202 203
118 1 202 204
119 1 205 206
120 1 205 207
121 1 208 209
122 1 208 210
123 1 211 212
124 1 211 213
125 1 214 215
126 1 214 216
127 1 217 218
128 1 217 219
129 1 220 221
130 1 220 222
131 1 223 224
132 1 223 225
133 1 226 227
134 1 226 228
135 1 229 230
136 1 229 231
137 1 232 233
138 1 232 234
139 1 235 236
140 1 235 237
141 1 238 239
142 1 238 240
143 1 241 242
144 1 241 243
145 1 244 245
146 1 244 246
147 1 247 248
148 1 247 249
149 1 250 251
150 1 250 252
151 1 253 254
152 1 253 255
153 1 256 257
154 1 256 258
155 1 259 260
156 1 259 261
157 1 262 263
158 1 262 264
159 1 265 266
160 1 265 267
161 1 268 269
162 1 268 270
163 1 271 272
164 1 271 273
165 1 274 275
166 1 274 276
167 1 277 278
168 1 277 279
169 1 280 281
170 1 280 282
171 1 283 284
172 1 283 285
173 1 286 287
174 1 286 288
175 1 289 290
176 1 289 291
177 1 292 293
178 1 292 294
179 1 295 296
180 1 295 297
181 1 298 299
182 1 298 300
183 1 301 302
184 1 301 303
185 1 304 305
186 1 304 306
187 1 307 308
188 1 307 309
189 1 310 311
190 1 310 312
191 1 313 314
192 1 313 315
193 1 316 317
194 1 316 318
195 1 319 320
196 1 319 321
197 1 322 323
198 1 322 324
199 1 325 326
200 1 325 327
201 2 328 329
202 2 330 331
203 2 332 333

Angles

1 1 29 28 30
2 1 32 31 33
3 1 35 34 36
4 1 38 37 39
5 1 41 40 42
6 1 44 43 45
7 1 47 46 48
8 1 50 49 51
9 1 53 52 54
10 1 56 55 57
11 1 59 58 60
12 1 62 61 63
13 1 65 64 66
14 1 68 67 69
15 1 71 70 72
16 1 74 73 75
17 1 77 76 78
18 1 80 79 81
19 1 83 82 84
20 1 86 85 87
21 1 89 88 90
22 1 92 91 93
23 1 95 94 96
24 1 98 97 99
25 1 101 100 102
26 1 104 103 105
27 1 107 106 108
28 1 110 109 111
29 1 113 112 114
30 1 116 115 117
31 1 119 118 120
32 1 122 121 123
33 1 125 124 126
34 1 128 127 129
35 1 131 130 132
36 1 134 133 135
37 1 137 136 138
38 1 140 139 141
39 1 143 142 144
40 1 146 145 147
41 1 149 148 150
42 1 152 151 153
43 1 155 154 156
44 1 158 157 159
45 1 161 160 162
46 1 164 163 165
47 1 167 166 168
48 1 170 169 171
49 1 173 172 174
50 1 176 175 177
51 1 179 178 180
52 1 182 181 183
53 1 185 184 186
54 1 188 187 189
55 1 191 190 192
56 1 194 193 195
57 1 197 196 198
58 1 200 199 201
59 1 203 202 204
60 1 206 205 207
61 1 209 208 210
62 1 212 211 213
63 1 215 214 216
64 1 218 217 219
65 1 221 220 222
66 1 224 223 225
67 1 227 226 228
68 1 230 229 231
69 1 233 232 234
70 1 236 235 237
71 1 239 238 240
72 1 242 241 243
73 1 245 244 246
74 1 248 247 249
75 1 251 250 252
76 1 254 253 255
77 1 257 256 258
78 1 260 259 261
79 1 263 262 264
80 1 266 265 267
81 1 269 268 270
82 1 272 271 273
83 1 275 274 276
84 1 278 277 279
85 1 281 280 282
86 1 284 283 285
87 1 287 286 288
88 1 290 289 291
89 1 293 292 294
90 1 296 295 297
91 1 299 298 300
92 1 302 301 303
93 1 305 304 306
94 1 308 307 309
95 1 311 310 312
96 1 314 313 315
97 1 317 316 318
98 1 320 319 321
99 1 323 322 324
100 1 326 325 327
